-- Generated [
-- Format      : ECLIPSE keywords (grid geometry and properties) (ASCII)
-- Exported by : Petrel 2014.4 (64-bit) Schlumberger
-- User name   : Syamil Razak
-- Date        : Thursday, September 20 2018 10:27:14
-- Project     : Gaussian dataset.pet
-- Grid        : Copy of 3D grid
-- Generated ]

PINCH                                  -- Generated : Petrel
  /

NOECHO                                 -- Generated : Petrel

MAPUNITS                               -- Generated : Petrel
  FEET /

MAPAXES                                -- Generated : Petrel
  3.28 4924.54 3.28 8205.38 3284.12 8205.38 /

GRIDUNIT                               -- Generated : Petrel
  FEET /

SPECGRID                               -- Generated : Petrel
  100 100 1 1 F /

COORDSYS                               -- Generated : Petrel
  1 1 /

COORD                                  -- Generated : Petrel
  0.00 0.00 3280.84 0.00 0.00 3297.24 82.02 0.00 3280.84 82.02 0.00 3297.24 164.04 0.00 3280.84 164.04 0.00 3297.24 246.06 0.00
  3280.84 246.06 0.00 3297.24 328.08 0.00 3280.84 328.08 0.00 3297.24 410.10 0.00 3280.84 410.10 0.00 3297.24 492.13 0.00 3280.84
  492.13 0.00 3297.24 574.15 0.00 3280.84 574.15 0.00 3297.24 656.17 0.00 3280.84 656.17 0.00 3297.24 738.19 0.00 3280.84 738.19
  0.00 3297.24 820.21 0.00 3280.84 820.21 0.00 3297.24 902.23 0.00 3280.84 902.23 0.00 3297.24 984.25 0.00 3280.84 984.25 0.00
  3297.24 1066.27 0.00 3280.84 1066.27 0.00 3297.24 1148.29 0.00 3280.84 1148.29 0.00 3297.24 1230.31 0.00 3280.84 1230.31 0.00
  3297.24 1312.34 0.00 3280.84 1312.34 0.00 3297.24 1394.36 0.00 3280.84 1394.36 0.00 3297.24 1476.38 0.00 3280.84 1476.38 0.00
  3297.24 1558.40 0.00 3280.84 1558.40 0.00 3297.24 1640.42 0.00 3280.84 1640.42 0.00 3297.24 1722.44 0.00 3280.84 1722.44 0.00
  3297.24 1804.46 0.00 3280.84 1804.46 0.00 3297.24 1886.48 0.00 3280.84 1886.48 0.00 3297.24 1968.50 0.00 3280.84 1968.50 0.00
  3297.24 2050.52 0.00 3280.84 2050.52 0.00 3297.24 2132.55 0.00 3280.84 2132.55 0.00 3297.24 2214.57 0.00 3280.84 2214.57 0.00
  3297.24 2296.59 0.00 3280.84 2296.59 0.00 3297.24 2378.61 0.00 3280.84 2378.61 0.00 3297.24 2460.63 0.00 3280.84 2460.63 0.00
  3297.24 2542.65 0.00 3280.84 2542.65 0.00 3297.24 2624.67 0.00 3280.84 2624.67 0.00 3297.24 2706.69 0.00 3280.84 2706.69 0.00
  3297.24 2788.71 0.00 3280.84 2788.71 0.00 3297.24 2870.73 0.00 3280.84 2870.73 0.00 3297.24 2952.76 0.00 3280.84 2952.76 0.00
  3297.24 3034.78 0.00 3280.84 3034.78 0.00 3297.24 3116.80 0.00 3280.84 3116.80 0.00 3297.24 3198.82 0.00 3280.84 3198.82 0.00
  3297.24 3280.84 0.00 3280.84 3280.84 0.00 3297.24 3362.86 0.00 3280.84 3362.86 0.00 3297.24 3444.88 0.00 3280.84 3444.88 0.00
  3297.24 3526.90 0.00 3280.84 3526.90 0.00 3297.24 3608.92 0.00 3280.84 3608.92 0.00 3297.24 3690.94 0.00 3280.84 3690.94 0.00
  3297.24 3772.97 0.00 3280.84 3772.97 0.00 3297.24 3854.99 0.00 3280.84 3854.99 0.00 3297.24 3937.01 0.00 3280.84 3937.01 0.00
  3297.24 4019.03 0.00 3280.84 4019.03 0.00 3297.24 4101.05 0.00 3280.84 4101.05 0.00 3297.24 4183.07 0.00 3280.84 4183.07 0.00
  3297.24 4265.09 0.00 3280.84 4265.09 0.00 3297.24 4347.11 0.00 3280.84 4347.11 0.00 3297.24 4429.13 0.00 3280.84 4429.13 0.00
  3297.24 4511.15 0.00 3280.84 4511.15 0.00 3297.24 4593.18 0.00 3280.84 4593.18 0.00 3297.24 4675.20 0.00 3280.84 4675.20 0.00
  3297.24 4757.22 0.00 3280.84 4757.22 0.00 3297.24 4839.24 0.00 3280.84 4839.24 0.00 3297.24 4921.26 0.00 3280.84 4921.26 0.00
  3297.24 5003.28 0.00 3280.84 5003.28 0.00 3297.24 5085.30 0.00 3280.84 5085.30 0.00 3297.24 5167.32 0.00 3280.84 5167.32 0.00
  3297.24 5249.34 0.00 3280.84 5249.34 0.00 3297.24 5331.36 0.00 3280.84 5331.36 0.00 3297.24 5413.39 0.00 3280.84 5413.39 0.00
  3297.24 5495.41 0.00 3280.84 5495.41 0.00 3297.24 5577.43 0.00 3280.84 5577.43 0.00 3297.24 5659.45 0.00 3280.84 5659.45 0.00
  3297.24 5741.47 0.00 3280.84 5741.47 0.00 3297.24 5823.49 0.00 3280.84 5823.49 0.00 3297.24 5905.51 0.00 3280.84 5905.51 0.00
  3297.24 5987.53 0.00 3280.84 5987.53 0.00 3297.24 6069.55 0.00 3280.84 6069.55 0.00 3297.24 6151.57 0.00 3280.84 6151.57 0.00
  3297.24 6233.60 0.00 3280.84 6233.60 0.00 3297.24 6315.62 0.00 3280.84 6315.62 0.00 3297.24 6397.64 0.00 3280.84 6397.64 0.00
  3297.24 6479.66 0.00 3280.84 6479.66 0.00 3297.24 6561.68 0.00 3280.84 6561.68 0.00 3297.24 6643.70 0.00 3280.84 6643.70 0.00
  3297.24 6725.72 0.00 3280.84 6725.72 0.00 3297.24 6807.74 0.00 3280.84 6807.74 0.00 3297.24 6889.76 0.00 3280.84 6889.76 0.00
  3297.24 6971.78 0.00 3280.84 6971.78 0.00 3297.24 7053.81 0.00 3280.84 7053.81 0.00 3297.24 7135.83 0.00 3280.84 7135.83 0.00
  3297.24 7217.85 0.00 3280.84 7217.85 0.00 3297.24 7299.87 0.00 3280.84 7299.87 0.00 3297.24 7381.89 0.00 3280.84 7381.89 0.00
  3297.24 7463.91 0.00 3280.84 7463.91 0.00 3297.24 7545.93 0.00 3280.84 7545.93 0.00 3297.24 7627.95 0.00 3280.84 7627.95 0.00
  3297.24 7709.97 0.00 3280.84 7709.97 0.00 3297.24 7791.99 0.00 3280.84 7791.99 0.00 3297.24 7874.02 0.00 3280.84 7874.02 0.00
  3297.24 7956.04 0.00 3280.84 7956.04 0.00 3297.24 8038.06 0.00 3280.84 8038.06 0.00 3297.24 8120.08 0.00 3280.84 8120.08 0.00
  3297.24 8202.10 0.00 3280.84 8202.10 0.00 3297.24 0.00 82.02 3280.84 0.00 82.02 3297.24 82.02 82.02 3280.84 82.02 82.02 3297.24
  164.04 82.02 3280.84 164.04 82.02 3297.24 246.06 82.02 3280.84 246.06 82.02 3297.24 328.08 82.02 3280.84 328.08 82.02 3297.24
  410.10 82.02 3280.84 410.10 82.02 3297.24 492.13 82.02 3280.84 492.13 82.02 3297.24 574.15 82.02 3280.84 574.15 82.02 3297.24
  656.17 82.02 3280.84 656.17 82.02 3297.24 738.19 82.02 3280.84 738.19 82.02 3297.24 820.21 82.02 3280.84 820.21 82.02 3297.24
  902.23 82.02 3280.84 902.23 82.02 3297.24 984.25 82.02 3280.84 984.25 82.02 3297.24 1066.27 82.02 3280.84 1066.27 82.02 3297.24
  1148.29 82.02 3280.84 1148.29 82.02 3297.24 1230.31 82.02 3280.84 1230.31 82.02 3297.24 1312.34 82.02 3280.84 1312.34 82.02
  3297.24 1394.36 82.02 3280.84 1394.36 82.02 3297.24 1476.38 82.02 3280.84 1476.38 82.02 3297.24 1558.40 82.02 3280.84 1558.40
  82.02 3297.24 1640.42 82.02 3280.84 1640.42 82.02 3297.24 1722.44 82.02 3280.84 1722.44 82.02 3297.24 1804.46 82.02 3280.84
  1804.46 82.02 3297.24 1886.48 82.02 3280.84 1886.48 82.02 3297.24 1968.50 82.02 3280.84 1968.50 82.02 3297.24 2050.52 82.02
  3280.84 2050.52 82.02 3297.24 2132.55 82.02 3280.84 2132.55 82.02 3297.24 2214.57 82.02 3280.84 2214.57 82.02 3297.24 2296.59
  82.02 3280.84 2296.59 82.02 3297.24 2378.61 82.02 3280.84 2378.61 82.02 3297.24 2460.63 82.02 3280.84 2460.63 82.02 3297.24
  2542.65 82.02 3280.84 2542.65 82.02 3297.24 2624.67 82.02 3280.84 2624.67 82.02 3297.24 2706.69 82.02 3280.84 2706.69 82.02
  3297.24 2788.71 82.02 3280.84 2788.71 82.02 3297.24 2870.73 82.02 3280.84 2870.73 82.02 3297.24 2952.76 82.02 3280.84 2952.76
  82.02 3297.24 3034.78 82.02 3280.84 3034.78 82.02 3297.24 3116.80 82.02 3280.84 3116.80 82.02 3297.24 3198.82 82.02 3280.84
  3198.82 82.02 3297.24 3280.84 82.02 3280.84 3280.84 82.02 3297.24 3362.86 82.02 3280.84 3362.86 82.02 3297.24 3444.88 82.02
  3280.84 3444.88 82.02 3297.24 3526.90 82.02 3280.84 3526.90 82.02 3297.24 3608.92 82.02 3280.84 3608.92 82.02 3297.24 3690.94
  82.02 3280.84 3690.94 82.02 3297.24 3772.97 82.02 3280.84 3772.97 82.02 3297.24 3854.99 82.02 3280.84 3854.99 82.02 3297.24
  3937.01 82.02 3280.84 3937.01 82.02 3297.24 4019.03 82.02 3280.84 4019.03 82.02 3297.24 4101.05 82.02 3280.84 4101.05 82.02
  3297.24 4183.07 82.02 3280.84 4183.07 82.02 3297.24 4265.09 82.02 3280.84 4265.09 82.02 3297.24 4347.11 82.02 3280.84 4347.11
  82.02 3297.24 4429.13 82.02 3280.84 4429.13 82.02 3297.24 4511.15 82.02 3280.84 4511.15 82.02 3297.24 4593.18 82.02 3280.84
  4593.18 82.02 3297.24 4675.20 82.02 3280.84 4675.20 82.02 3297.24 4757.22 82.02 3280.84 4757.22 82.02 3297.24 4839.24 82.02
  3280.84 4839.24 82.02 3297.24 4921.26 82.02 3280.84 4921.26 82.02 3297.24 5003.28 82.02 3280.84 5003.28 82.02 3297.24 5085.30
  82.02 3280.84 5085.30 82.02 3297.24 5167.32 82.02 3280.84 5167.32 82.02 3297.24 5249.34 82.02 3280.84 5249.34 82.02 3297.24
  5331.36 82.02 3280.84 5331.36 82.02 3297.24 5413.39 82.02 3280.84 5413.39 82.02 3297.24 5495.41 82.02 3280.84 5495.41 82.02
  3297.24 5577.43 82.02 3280.84 5577.43 82.02 3297.24 5659.45 82.02 3280.84 5659.45 82.02 3297.24 5741.47 82.02 3280.84 5741.47
  82.02 3297.24 5823.49 82.02 3280.84 5823.49 82.02 3297.24 5905.51 82.02 3280.84 5905.51 82.02 3297.24 5987.53 82.02 3280.84
  5987.53 82.02 3297.24 6069.55 82.02 3280.84 6069.55 82.02 3297.24 6151.57 82.02 3280.84 6151.57 82.02 3297.24 6233.60 82.02
  3280.84 6233.60 82.02 3297.24 6315.62 82.02 3280.84 6315.62 82.02 3297.24 6397.64 82.02 3280.84 6397.64 82.02 3297.24 6479.66
  82.02 3280.84 6479.66 82.02 3297.24 6561.68 82.02 3280.84 6561.68 82.02 3297.24 6643.70 82.02 3280.84 6643.70 82.02 3297.24
  6725.72 82.02 3280.84 6725.72 82.02 3297.24 6807.74 82.02 3280.84 6807.74 82.02 3297.24 6889.76 82.02 3280.84 6889.76 82.02
  3297.24 6971.78 82.02 3280.84 6971.78 82.02 3297.24 7053.81 82.02 3280.84 7053.81 82.02 3297.24 7135.83 82.02 3280.84 7135.83
  82.02 3297.24 7217.85 82.02 3280.84 7217.85 82.02 3297.24 7299.87 82.02 3280.84 7299.87 82.02 3297.24 7381.89 82.02 3280.84
  7381.89 82.02 3297.24 7463.91 82.02 3280.84 7463.91 82.02 3297.24 7545.93 82.02 3280.84 7545.93 82.02 3297.24 7627.95 82.02
  3280.84 7627.95 82.02 3297.24 7709.97 82.02 3280.84 7709.97 82.02 3297.24 7791.99 82.02 3280.84 7791.99 82.02 3297.24 7874.02
  82.02 3280.84 7874.02 82.02 3297.24 7956.04 82.02 3280.84 7956.04 82.02 3297.24 8038.06 82.02 3280.84 8038.06 82.02 3297.24
  8120.08 82.02 3280.84 8120.08 82.02 3297.24 8202.10 82.02 3280.84 8202.10 82.02 3297.24 0.00 164.04 3280.84 0.00 164.04 3297.24
  82.02 164.04 3280.84 82.02 164.04 3297.24 164.04 164.04 3280.84 164.04 164.04 3297.24 246.06 164.04 3280.84 246.06 164.04 3297.24
  328.08 164.04 3280.84 328.08 164.04 3297.24 410.10 164.04 3280.84 410.10 164.04 3297.24 492.13 164.04 3280.84 492.13 164.04
  3297.24 574.15 164.04 3280.84 574.15 164.04 3297.24 656.17 164.04 3280.84 656.17 164.04 3297.24 738.19 164.04 3280.84 738.19
  164.04 3297.24 820.21 164.04 3280.84 820.21 164.04 3297.24 902.23 164.04 3280.84 902.23 164.04 3297.24 984.25 164.04 3280.84
  984.25 164.04 3297.24 1066.27 164.04 3280.84 1066.27 164.04 3297.24 1148.29 164.04 3280.84 1148.29 164.04 3297.24 1230.31 164.04
  3280.84 1230.31 164.04 3297.24 1312.34 164.04 3280.84 1312.34 164.04 3297.24 1394.36 164.04 3280.84 1394.36 164.04 3297.24 1476.38
  164.04 3280.84 1476.38 164.04 3297.24 1558.40 164.04 3280.84 1558.40 164.04 3297.24 1640.42 164.04 3280.84 1640.42 164.04 3297.24
  1722.44 164.04 3280.84 1722.44 164.04 3297.24 1804.46 164.04 3280.84 1804.46 164.04 3297.24 1886.48 164.04 3280.84 1886.48 164.04
  3297.24 1968.50 164.04 3280.84 1968.50 164.04 3297.24 2050.52 164.04 3280.84 2050.52 164.04 3297.24 2132.55 164.04 3280.84 2132.55
  164.04 3297.24 2214.57 164.04 3280.84 2214.57 164.04 3297.24 2296.59 164.04 3280.84 2296.59 164.04 3297.24 2378.61 164.04 3280.84
  2378.61 164.04 3297.24 2460.63 164.04 3280.84 2460.63 164.04 3297.24 2542.65 164.04 3280.84 2542.65 164.04 3297.24 2624.67 164.04
  3280.84 2624.67 164.04 3297.24 2706.69 164.04 3280.84 2706.69 164.04 3297.24 2788.71 164.04 3280.84 2788.71 164.04 3297.24 2870.73
  164.04 3280.84 2870.73 164.04 3297.24 2952.76 164.04 3280.84 2952.76 164.04 3297.24 3034.78 164.04 3280.84 3034.78 164.04 3297.24
  3116.80 164.04 3280.84 3116.80 164.04 3297.24 3198.82 164.04 3280.84 3198.82 164.04 3297.24 3280.84 164.04 3280.84 3280.84 164.04
  3297.24 3362.86 164.04 3280.84 3362.86 164.04 3297.24 3444.88 164.04 3280.84 3444.88 164.04 3297.24 3526.90 164.04 3280.84 3526.90
  164.04 3297.24 3608.92 164.04 3280.84 3608.92 164.04 3297.24 3690.94 164.04 3280.84 3690.94 164.04 3297.24 3772.97 164.04 3280.84
  3772.97 164.04 3297.24 3854.99 164.04 3280.84 3854.99 164.04 3297.24 3937.01 164.04 3280.84 3937.01 164.04 3297.24 4019.03 164.04
  3280.84 4019.03 164.04 3297.24 4101.05 164.04 3280.84 4101.05 164.04 3297.24 4183.07 164.04 3280.84 4183.07 164.04 3297.24 4265.09
  164.04 3280.84 4265.09 164.04 3297.24 4347.11 164.04 3280.84 4347.11 164.04 3297.24 4429.13 164.04 3280.84 4429.13 164.04 3297.24
  4511.15 164.04 3280.84 4511.15 164.04 3297.24 4593.18 164.04 3280.84 4593.18 164.04 3297.24 4675.20 164.04 3280.84 4675.20 164.04
  3297.24 4757.22 164.04 3280.84 4757.22 164.04 3297.24 4839.24 164.04 3280.84 4839.24 164.04 3297.24 4921.26 164.04 3280.84 4921.26
  164.04 3297.24 5003.28 164.04 3280.84 5003.28 164.04 3297.24 5085.30 164.04 3280.84 5085.30 164.04 3297.24 5167.32 164.04 3280.84
  5167.32 164.04 3297.24 5249.34 164.04 3280.84 5249.34 164.04 3297.24 5331.36 164.04 3280.84 5331.36 164.04 3297.24 5413.39 164.04
  3280.84 5413.39 164.04 3297.24 5495.41 164.04 3280.84 5495.41 164.04 3297.24 5577.43 164.04 3280.84 5577.43 164.04 3297.24 5659.45
  164.04 3280.84 5659.45 164.04 3297.24 5741.47 164.04 3280.84 5741.47 164.04 3297.24 5823.49 164.04 3280.84 5823.49 164.04 3297.24
  5905.51 164.04 3280.84 5905.51 164.04 3297.24 5987.53 164.04 3280.84 5987.53 164.04 3297.24 6069.55 164.04 3280.84 6069.55 164.04
  3297.24 6151.57 164.04 3280.84 6151.57 164.04 3297.24 6233.60 164.04 3280.84 6233.60 164.04 3297.24 6315.62 164.04 3280.84 6315.62
  164.04 3297.24 6397.64 164.04 3280.84 6397.64 164.04 3297.24 6479.66 164.04 3280.84 6479.66 164.04 3297.24 6561.68 164.04 3280.84
  6561.68 164.04 3297.24 6643.70 164.04 3280.84 6643.70 164.04 3297.24 6725.72 164.04 3280.84 6725.72 164.04 3297.24 6807.74 164.04
  3280.84 6807.74 164.04 3297.24 6889.76 164.04 3280.84 6889.76 164.04 3297.24 6971.78 164.04 3280.84 6971.78 164.04 3297.24 7053.81
  164.04 3280.84 7053.81 164.04 3297.24 7135.83 164.04 3280.84 7135.83 164.04 3297.24 7217.85 164.04 3280.84 7217.85 164.04 3297.24
  7299.87 164.04 3280.84 7299.87 164.04 3297.24 7381.89 164.04 3280.84 7381.89 164.04 3297.24 7463.91 164.04 3280.84 7463.91 164.04
  3297.24 7545.93 164.04 3280.84 7545.93 164.04 3297.24 7627.95 164.04 3280.84 7627.95 164.04 3297.24 7709.97 164.04 3280.84 7709.97
  164.04 3297.24 7791.99 164.04 3280.84 7791.99 164.04 3297.24 7874.02 164.04 3280.84 7874.02 164.04 3297.24 7956.04 164.04 3280.84
  7956.04 164.04 3297.24 8038.06 164.04 3280.84 8038.06 164.04 3297.24 8120.08 164.04 3280.84 8120.08 164.04 3297.24 8202.10 164.04
  3280.84 8202.10 164.04 3297.24 0.00 246.06 3280.84 0.00 246.06 3297.24 82.02 246.06 3280.84 82.02 246.06 3297.24 164.04 246.06
  3280.84 164.04 246.06 3297.24 246.06 246.06 3280.84 246.06 246.06 3297.24 328.08 246.06 3280.84 328.08 246.06 3297.24 410.10
  246.06 3280.84 410.10 246.06 3297.24 492.13 246.06 3280.84 492.13 246.06 3297.24 574.15 246.06 3280.84 574.15 246.06 3297.24
  656.17 246.06 3280.84 656.17 246.06 3297.24 738.19 246.06 3280.84 738.19 246.06 3297.24 820.21 246.06 3280.84 820.21 246.06
  3297.24 902.23 246.06 3280.84 902.23 246.06 3297.24 984.25 246.06 3280.84 984.25 246.06 3297.24 1066.27 246.06 3280.84 1066.27
  246.06 3297.24 1148.29 246.06 3280.84 1148.29 246.06 3297.24 1230.31 246.06 3280.84 1230.31 246.06 3297.24 1312.34 246.06 3280.84
  1312.34 246.06 3297.24 1394.36 246.06 3280.84 1394.36 246.06 3297.24 1476.38 246.06 3280.84 1476.38 246.06 3297.24 1558.40 246.06
  3280.84 1558.40 246.06 3297.24 1640.42 246.06 3280.84 1640.42 246.06 3297.24 1722.44 246.06 3280.84 1722.44 246.06 3297.24 1804.46
  246.06 3280.84 1804.46 246.06 3297.24 1886.48 246.06 3280.84 1886.48 246.06 3297.24 1968.50 246.06 3280.84 1968.50 246.06 3297.24
  2050.52 246.06 3280.84 2050.52 246.06 3297.24 2132.55 246.06 3280.84 2132.55 246.06 3297.24 2214.57 246.06 3280.84 2214.57 246.06
  3297.24 2296.59 246.06 3280.84 2296.59 246.06 3297.24 2378.61 246.06 3280.84 2378.61 246.06 3297.24 2460.63 246.06 3280.84 2460.63
  246.06 3297.24 2542.65 246.06 3280.84 2542.65 246.06 3297.24 2624.67 246.06 3280.84 2624.67 246.06 3297.24 2706.69 246.06 3280.84
  2706.69 246.06 3297.24 2788.71 246.06 3280.84 2788.71 246.06 3297.24 2870.73 246.06 3280.84 2870.73 246.06 3297.24 2952.76 246.06
  3280.84 2952.76 246.06 3297.24 3034.78 246.06 3280.84 3034.78 246.06 3297.24 3116.80 246.06 3280.84 3116.80 246.06 3297.24 3198.82
  246.06 3280.84 3198.82 246.06 3297.24 3280.84 246.06 3280.84 3280.84 246.06 3297.24 3362.86 246.06 3280.84 3362.86 246.06 3297.24
  3444.88 246.06 3280.84 3444.88 246.06 3297.24 3526.90 246.06 3280.84 3526.90 246.06 3297.24 3608.92 246.06 3280.84 3608.92 246.06
  3297.24 3690.94 246.06 3280.84 3690.94 246.06 3297.24 3772.97 246.06 3280.84 3772.97 246.06 3297.24 3854.99 246.06 3280.84 3854.99
  246.06 3297.24 3937.01 246.06 3280.84 3937.01 246.06 3297.24 4019.03 246.06 3280.84 4019.03 246.06 3297.24 4101.05 246.06 3280.84
  4101.05 246.06 3297.24 4183.07 246.06 3280.84 4183.07 246.06 3297.24 4265.09 246.06 3280.84 4265.09 246.06 3297.24 4347.11 246.06
  3280.84 4347.11 246.06 3297.24 4429.13 246.06 3280.84 4429.13 246.06 3297.24 4511.15 246.06 3280.84 4511.15 246.06 3297.24 4593.18
  246.06 3280.84 4593.18 246.06 3297.24 4675.20 246.06 3280.84 4675.20 246.06 3297.24 4757.22 246.06 3280.84 4757.22 246.06 3297.24
  4839.24 246.06 3280.84 4839.24 246.06 3297.24 4921.26 246.06 3280.84 4921.26 246.06 3297.24 5003.28 246.06 3280.84 5003.28 246.06
  3297.24 5085.30 246.06 3280.84 5085.30 246.06 3297.24 5167.32 246.06 3280.84 5167.32 246.06 3297.24 5249.34 246.06 3280.84 5249.34
  246.06 3297.24 5331.36 246.06 3280.84 5331.36 246.06 3297.24 5413.39 246.06 3280.84 5413.39 246.06 3297.24 5495.41 246.06 3280.84
  5495.41 246.06 3297.24 5577.43 246.06 3280.84 5577.43 246.06 3297.24 5659.45 246.06 3280.84 5659.45 246.06 3297.24 5741.47 246.06
  3280.84 5741.47 246.06 3297.24 5823.49 246.06 3280.84 5823.49 246.06 3297.24 5905.51 246.06 3280.84 5905.51 246.06 3297.24 5987.53
  246.06 3280.84 5987.53 246.06 3297.24 6069.55 246.06 3280.84 6069.55 246.06 3297.24 6151.57 246.06 3280.84 6151.57 246.06 3297.24
  6233.60 246.06 3280.84 6233.60 246.06 3297.24 6315.62 246.06 3280.84 6315.62 246.06 3297.24 6397.64 246.06 3280.84 6397.64 246.06
  3297.24 6479.66 246.06 3280.84 6479.66 246.06 3297.24 6561.68 246.06 3280.84 6561.68 246.06 3297.24 6643.70 246.06 3280.84 6643.70
  246.06 3297.24 6725.72 246.06 3280.84 6725.72 246.06 3297.24 6807.74 246.06 3280.84 6807.74 246.06 3297.24 6889.76 246.06 3280.84
  6889.76 246.06 3297.24 6971.78 246.06 3280.84 6971.78 246.06 3297.24 7053.81 246.06 3280.84 7053.81 246.06 3297.24 7135.83 246.06
  3280.84 7135.83 246.06 3297.24 7217.85 246.06 3280.84 7217.85 246.06 3297.24 7299.87 246.06 3280.84 7299.87 246.06 3297.24 7381.89
  246.06 3280.84 7381.89 246.06 3297.24 7463.91 246.06 3280.84 7463.91 246.06 3297.24 7545.93 246.06 3280.84 7545.93 246.06 3297.24
  7627.95 246.06 3280.84 7627.95 246.06 3297.24 7709.97 246.06 3280.84 7709.97 246.06 3297.24 7791.99 246.06 3280.84 7791.99 246.06
  3297.24 7874.02 246.06 3280.84 7874.02 246.06 3297.24 7956.04 246.06 3280.84 7956.04 246.06 3297.24 8038.06 246.06 3280.84 8038.06
  246.06 3297.24 8120.08 246.06 3280.84 8120.08 246.06 3297.24 8202.10 246.06 3280.84 8202.10 246.06 3297.24 0.00 328.08 3280.84
  0.00 328.08 3297.24 82.02 328.08 3280.84 82.02 328.08 3297.24 164.04 328.08 3280.84 164.04 328.08 3297.24 246.06 328.08 3280.84
  246.06 328.08 3297.24 328.08 328.08 3280.84 328.08 328.08 3297.24 410.10 328.08 3280.84 410.10 328.08 3297.24 492.13 328.08
  3280.84 492.13 328.08 3297.24 574.15 328.08 3280.84 574.15 328.08 3297.24 656.17 328.08 3280.84 656.17 328.08 3297.24 738.19
  328.08 3280.84 738.19 328.08 3297.24 820.21 328.08 3280.84 820.21 328.08 3297.24 902.23 328.08 3280.84 902.23 328.08 3297.24
  984.25 328.08 3280.84 984.25 328.08 3297.24 1066.27 328.08 3280.84 1066.27 328.08 3297.24 1148.29 328.08 3280.84 1148.29 328.08
  3297.24 1230.31 328.08 3280.84 1230.31 328.08 3297.24 1312.34 328.08 3280.84 1312.34 328.08 3297.24 1394.36 328.08 3280.84 1394.36
  328.08 3297.24 1476.38 328.08 3280.84 1476.38 328.08 3297.24 1558.40 328.08 3280.84 1558.40 328.08 3297.24 1640.42 328.08 3280.84
  1640.42 328.08 3297.24 1722.44 328.08 3280.84 1722.44 328.08 3297.24 1804.46 328.08 3280.84 1804.46 328.08 3297.24 1886.48 328.08
  3280.84 1886.48 328.08 3297.24 1968.50 328.08 3280.84 1968.50 328.08 3297.24 2050.52 328.08 3280.84 2050.52 328.08 3297.24 2132.55
  328.08 3280.84 2132.55 328.08 3297.24 2214.57 328.08 3280.84 2214.57 328.08 3297.24 2296.59 328.08 3280.84 2296.59 328.08 3297.24
  2378.61 328.08 3280.84 2378.61 328.08 3297.24 2460.63 328.08 3280.84 2460.63 328.08 3297.24 2542.65 328.08 3280.84 2542.65 328.08
  3297.24 2624.67 328.08 3280.84 2624.67 328.08 3297.24 2706.69 328.08 3280.84 2706.69 328.08 3297.24 2788.71 328.08 3280.84 2788.71
  328.08 3297.24 2870.73 328.08 3280.84 2870.73 328.08 3297.24 2952.76 328.08 3280.84 2952.76 328.08 3297.24 3034.78 328.08 3280.84
  3034.78 328.08 3297.24 3116.80 328.08 3280.84 3116.80 328.08 3297.24 3198.82 328.08 3280.84 3198.82 328.08 3297.24 3280.84 328.08
  3280.84 3280.84 328.08 3297.24 3362.86 328.08 3280.84 3362.86 328.08 3297.24 3444.88 328.08 3280.84 3444.88 328.08 3297.24 3526.90
  328.08 3280.84 3526.90 328.08 3297.24 3608.92 328.08 3280.84 3608.92 328.08 3297.24 3690.94 328.08 3280.84 3690.94 328.08 3297.24
  3772.97 328.08 3280.84 3772.97 328.08 3297.24 3854.99 328.08 3280.84 3854.99 328.08 3297.24 3937.01 328.08 3280.84 3937.01 328.08
  3297.24 4019.03 328.08 3280.84 4019.03 328.08 3297.24 4101.05 328.08 3280.84 4101.05 328.08 3297.24 4183.07 328.08 3280.84 4183.07
  328.08 3297.24 4265.09 328.08 3280.84 4265.09 328.08 3297.24 4347.11 328.08 3280.84 4347.11 328.08 3297.24 4429.13 328.08 3280.84
  4429.13 328.08 3297.24 4511.15 328.08 3280.84 4511.15 328.08 3297.24 4593.18 328.08 3280.84 4593.18 328.08 3297.24 4675.20 328.08
  3280.84 4675.20 328.08 3297.24 4757.22 328.08 3280.84 4757.22 328.08 3297.24 4839.24 328.08 3280.84 4839.24 328.08 3297.24 4921.26
  328.08 3280.84 4921.26 328.08 3297.24 5003.28 328.08 3280.84 5003.28 328.08 3297.24 5085.30 328.08 3280.84 5085.30 328.08 3297.24
  5167.32 328.08 3280.84 5167.32 328.08 3297.24 5249.34 328.08 3280.84 5249.34 328.08 3297.24 5331.36 328.08 3280.84 5331.36 328.08
  3297.24 5413.39 328.08 3280.84 5413.39 328.08 3297.24 5495.41 328.08 3280.84 5495.41 328.08 3297.24 5577.43 328.08 3280.84 5577.43
  328.08 3297.24 5659.45 328.08 3280.84 5659.45 328.08 3297.24 5741.47 328.08 3280.84 5741.47 328.08 3297.24 5823.49 328.08 3280.84
  5823.49 328.08 3297.24 5905.51 328.08 3280.84 5905.51 328.08 3297.24 5987.53 328.08 3280.84 5987.53 328.08 3297.24 6069.55 328.08
  3280.84 6069.55 328.08 3297.24 6151.57 328.08 3280.84 6151.57 328.08 3297.24 6233.60 328.08 3280.84 6233.60 328.08 3297.24 6315.62
  328.08 3280.84 6315.62 328.08 3297.24 6397.64 328.08 3280.84 6397.64 328.08 3297.24 6479.66 328.08 3280.84 6479.66 328.08 3297.24
  6561.68 328.08 3280.84 6561.68 328.08 3297.24 6643.70 328.08 3280.84 6643.70 328.08 3297.24 6725.72 328.08 3280.84 6725.72 328.08
  3297.24 6807.74 328.08 3280.84 6807.74 328.08 3297.24 6889.76 328.08 3280.84 6889.76 328.08 3297.24 6971.78 328.08 3280.84 6971.78
  328.08 3297.24 7053.81 328.08 3280.84 7053.81 328.08 3297.24 7135.83 328.08 3280.84 7135.83 328.08 3297.24 7217.85 328.08 3280.84
  7217.85 328.08 3297.24 7299.87 328.08 3280.84 7299.87 328.08 3297.24 7381.89 328.08 3280.84 7381.89 328.08 3297.24 7463.91 328.08
  3280.84 7463.91 328.08 3297.24 7545.93 328.08 3280.84 7545.93 328.08 3297.24 7627.95 328.08 3280.84 7627.95 328.08 3297.24 7709.97
  328.08 3280.84 7709.97 328.08 3297.24 7791.99 328.08 3280.84 7791.99 328.08 3297.24 7874.02 328.08 3280.84 7874.02 328.08 3297.24
  7956.04 328.08 3280.84 7956.04 328.08 3297.24 8038.06 328.08 3280.84 8038.06 328.08 3297.24 8120.08 328.08 3280.84 8120.08 328.08
  3297.24 8202.10 328.08 3280.84 8202.10 328.08 3297.24 0.00 410.10 3280.84 0.00 410.10 3297.24 82.02 410.10 3280.84 82.02 410.10
  3297.24 164.04 410.10 3280.84 164.04 410.10 3297.24 246.06 410.10 3280.84 246.06 410.10 3297.24 328.08 410.10 3280.84 328.08
  410.10 3297.24 410.10 410.10 3280.84 410.10 410.10 3297.24 492.13 410.10 3280.84 492.13 410.10 3297.24 574.15 410.10 3280.84
  574.15 410.10 3297.24 656.17 410.10 3280.84 656.17 410.10 3297.24 738.19 410.10 3280.84 738.19 410.10 3297.24 820.21 410.10
  3280.84 820.21 410.10 3297.24 902.23 410.10 3280.84 902.23 410.10 3297.24 984.25 410.10 3280.84 984.25 410.10 3297.24 1066.27
  410.10 3280.84 1066.27 410.10 3297.24 1148.29 410.10 3280.84 1148.29 410.10 3297.24 1230.31 410.10 3280.84 1230.31 410.10 3297.24
  1312.34 410.10 3280.84 1312.34 410.10 3297.24 1394.36 410.10 3280.84 1394.36 410.10 3297.24 1476.38 410.10 3280.84 1476.38 410.10
  3297.24 1558.40 410.10 3280.84 1558.40 410.10 3297.24 1640.42 410.10 3280.84 1640.42 410.10 3297.24 1722.44 410.10 3280.84 1722.44
  410.10 3297.24 1804.46 410.10 3280.84 1804.46 410.10 3297.24 1886.48 410.10 3280.84 1886.48 410.10 3297.24 1968.50 410.10 3280.84
  1968.50 410.10 3297.24 2050.52 410.10 3280.84 2050.52 410.10 3297.24 2132.55 410.10 3280.84 2132.55 410.10 3297.24 2214.57 410.10
  3280.84 2214.57 410.10 3297.24 2296.59 410.10 3280.84 2296.59 410.10 3297.24 2378.61 410.10 3280.84 2378.61 410.10 3297.24 2460.63
  410.10 3280.84 2460.63 410.10 3297.24 2542.65 410.10 3280.84 2542.65 410.10 3297.24 2624.67 410.10 3280.84 2624.67 410.10 3297.24
  2706.69 410.10 3280.84 2706.69 410.10 3297.24 2788.71 410.10 3280.84 2788.71 410.10 3297.24 2870.73 410.10 3280.84 2870.73 410.10
  3297.24 2952.76 410.10 3280.84 2952.76 410.10 3297.24 3034.78 410.10 3280.84 3034.78 410.10 3297.24 3116.80 410.10 3280.84 3116.80
  410.10 3297.24 3198.82 410.10 3280.84 3198.82 410.10 3297.24 3280.84 410.10 3280.84 3280.84 410.10 3297.24 3362.86 410.10 3280.84
  3362.86 410.10 3297.24 3444.88 410.10 3280.84 3444.88 410.10 3297.24 3526.90 410.10 3280.84 3526.90 410.10 3297.24 3608.92 410.10
  3280.84 3608.92 410.10 3297.24 3690.94 410.10 3280.84 3690.94 410.10 3297.24 3772.97 410.10 3280.84 3772.97 410.10 3297.24 3854.99
  410.10 3280.84 3854.99 410.10 3297.24 3937.01 410.10 3280.84 3937.01 410.10 3297.24 4019.03 410.10 3280.84 4019.03 410.10 3297.24
  4101.05 410.10 3280.84 4101.05 410.10 3297.24 4183.07 410.10 3280.84 4183.07 410.10 3297.24 4265.09 410.10 3280.84 4265.09 410.10
  3297.24 4347.11 410.10 3280.84 4347.11 410.10 3297.24 4429.13 410.10 3280.84 4429.13 410.10 3297.24 4511.15 410.10 3280.84 4511.15
  410.10 3297.24 4593.18 410.10 3280.84 4593.18 410.10 3297.24 4675.20 410.10 3280.84 4675.20 410.10 3297.24 4757.22 410.10 3280.84
  4757.22 410.10 3297.24 4839.24 410.10 3280.84 4839.24 410.10 3297.24 4921.26 410.10 3280.84 4921.26 410.10 3297.24 5003.28 410.10
  3280.84 5003.28 410.10 3297.24 5085.30 410.10 3280.84 5085.30 410.10 3297.24 5167.32 410.10 3280.84 5167.32 410.10 3297.24 5249.34
  410.10 3280.84 5249.34 410.10 3297.24 5331.36 410.10 3280.84 5331.36 410.10 3297.24 5413.39 410.10 3280.84 5413.39 410.10 3297.24
  5495.41 410.10 3280.84 5495.41 410.10 3297.24 5577.43 410.10 3280.84 5577.43 410.10 3297.24 5659.45 410.10 3280.84 5659.45 410.10
  3297.24 5741.47 410.10 3280.84 5741.47 410.10 3297.24 5823.49 410.10 3280.84 5823.49 410.10 3297.24 5905.51 410.10 3280.84 5905.51
  410.10 3297.24 5987.53 410.10 3280.84 5987.53 410.10 3297.24 6069.55 410.10 3280.84 6069.55 410.10 3297.24 6151.57 410.10 3280.84
  6151.57 410.10 3297.24 6233.60 410.10 3280.84 6233.60 410.10 3297.24 6315.62 410.10 3280.84 6315.62 410.10 3297.24 6397.64 410.10
  3280.84 6397.64 410.10 3297.24 6479.66 410.10 3280.84 6479.66 410.10 3297.24 6561.68 410.10 3280.84 6561.68 410.10 3297.24 6643.70
  410.10 3280.84 6643.70 410.10 3297.24 6725.72 410.10 3280.84 6725.72 410.10 3297.24 6807.74 410.10 3280.84 6807.74 410.10 3297.24
  6889.76 410.10 3280.84 6889.76 410.10 3297.24 6971.78 410.10 3280.84 6971.78 410.10 3297.24 7053.81 410.10 3280.84 7053.81 410.10
  3297.24 7135.83 410.10 3280.84 7135.83 410.10 3297.24 7217.85 410.10 3280.84 7217.85 410.10 3297.24 7299.87 410.10 3280.84 7299.87
  410.10 3297.24 7381.89 410.10 3280.84 7381.89 410.10 3297.24 7463.91 410.10 3280.84 7463.91 410.10 3297.24 7545.93 410.10 3280.84
  7545.93 410.10 3297.24 7627.95 410.10 3280.84 7627.95 410.10 3297.24 7709.97 410.10 3280.84 7709.97 410.10 3297.24 7791.99 410.10
  3280.84 7791.99 410.10 3297.24 7874.02 410.10 3280.84 7874.02 410.10 3297.24 7956.04 410.10 3280.84 7956.04 410.10 3297.24 8038.06
  410.10 3280.84 8038.06 410.10 3297.24 8120.08 410.10 3280.84 8120.08 410.10 3297.24 8202.10 410.10 3280.84 8202.10 410.10 3297.24
  0.00 492.13 3280.84 0.00 492.13 3297.24 82.02 492.13 3280.84 82.02 492.13 3297.24 164.04 492.13 3280.84 164.04 492.13 3297.24
  246.06 492.13 3280.84 246.06 492.13 3297.24 328.08 492.13 3280.84 328.08 492.13 3297.24 410.10 492.13 3280.84 410.10 492.13
  3297.24 492.13 492.13 3280.84 492.13 492.13 3297.24 574.15 492.13 3280.84 574.15 492.13 3297.24 656.17 492.13 3280.84 656.17
  492.13 3297.24 738.19 492.13 3280.84 738.19 492.13 3297.24 820.21 492.13 3280.84 820.21 492.13 3297.24 902.23 492.13 3280.84
  902.23 492.13 3297.24 984.25 492.13 3280.84 984.25 492.13 3297.24 1066.27 492.13 3280.84 1066.27 492.13 3297.24 1148.29 492.13
  3280.84 1148.29 492.13 3297.24 1230.31 492.13 3280.84 1230.31 492.13 3297.24 1312.34 492.13 3280.84 1312.34 492.13 3297.24 1394.36
  492.13 3280.84 1394.36 492.13 3297.24 1476.38 492.13 3280.84 1476.38 492.13 3297.24 1558.40 492.13 3280.84 1558.40 492.13 3297.24
  1640.42 492.13 3280.84 1640.42 492.13 3297.24 1722.44 492.13 3280.84 1722.44 492.13 3297.24 1804.46 492.13 3280.84 1804.46 492.13
  3297.24 1886.48 492.13 3280.84 1886.48 492.13 3297.24 1968.50 492.13 3280.84 1968.50 492.13 3297.24 2050.52 492.13 3280.84 2050.52
  492.13 3297.24 2132.55 492.13 3280.84 2132.55 492.13 3297.24 2214.57 492.13 3280.84 2214.57 492.13 3297.24 2296.59 492.13 3280.84
  2296.59 492.13 3297.24 2378.61 492.13 3280.84 2378.61 492.13 3297.24 2460.63 492.13 3280.84 2460.63 492.13 3297.24 2542.65 492.13
  3280.84 2542.65 492.13 3297.24 2624.67 492.13 3280.84 2624.67 492.13 3297.24 2706.69 492.13 3280.84 2706.69 492.13 3297.24 2788.71